
    20 atoms
    19 bonds
    2 atom types
    1 bond types
    
    -13.5721 13.5721 xlo xhi
    -13.5721 13.5721 ylo yhi
    -13.5721 13.5721 zlo zhi
    
    Masses
    
    1  1
    2  1
    
    Atoms
    
    1  1  2  -2.03212  -6.40088  -7.14687  0  0  0
    2  2  2  -2.38817  -6.50992  -8.04255  0  0  0
    3  3  2  -2.36552  -6.27412  -8.98318  0  0  0
    4  4  2  -2.47895  -6.95579  -9.66389  0  0  0
    5  5  1  -1.77558  -6.94416  -10.3317  0  0  0
    6  6  1  -1.30506  -7.6656  -9.88563  0  0  0
    7  7  1  -1.16092  -8.20008  -9.0891  0  0  0
    8  8  1  -0.716761  -9.06234  -9.10083  0  0  0
    9  9  2  -1.50481  -9.35022  -9.58766  0  0  0
    10  10  1  -2.27599  -8.76187  -9.58234  0  0  0
    11  11  2  -3.07885  -8.89269  -10.1107  0  0  0
    12  12  1  -4.03118  -9.04589  -10.2132  0  0  0
    13  13  1  -4.51863  -8.20726  -10.2161  0  0  0
    14  14  1  -4.4168  -7.25609  -10.0554  0  0  0
    15  15  1  -3.89086  -6.50434  -9.74054  0  0  0
    16  16  1  -3.58668  -5.71975  -9.25806  0  0  0
    17  17  2  -2.61857  -5.76938  -9.22322  0  0  0
    18  18  2  -2.85907  -6.02768  -8.3197  0  0  0
    19  19  2  -2.79907  -6.98136  -8.48638  0  0  0
    20  20  2  -3.17694  -7.21514  -7.62414  0  0  0
    
    Bonds
    
    1 1 1 2
    2 1 2 3
    3 1 3 4
    4 1 4 5
    5 1 5 6
    6 1 6 7
    7 1 7 8
    8 1 8 9
    9 1 9 10
    10 1 10 11
    11 1 11 12
    12 1 12 13
    13 1 13 14
    14 1 14 15
    15 1 15 16
    16 1 16 17
    17 1 17 18
    18 1 18 19
    19 1 19 20
    